<?xml version="1.0" encoding="UTF-8"?>

<!-- generated on 2025-07-10 10:50:14 by Eclipse SUMO GUI Version 1.20.0
<configuration xmlns:xsi="http://www.w3.org/2001/XMLSchema-instance" xsi:noNamespaceSchemaLocation="http://sumo.dlr.de/xsd/sumoConfiguration.xsd">

    <input>
        <net-file value="D:\Sumo\sumo-marl\scenario\ql1.net.xml"/>
        <additional-files value="D:\Sumo\sumo-marl\scenario\ql2.det.xml"/>
    </input>

    <output>
        <netstate-dump value="D:\Sumo\sumo-marl\scenario\netstate.xml"/>
    </output>

    <time>
        <begin value="0"/>
        <end value="10000"/>
    </time>

    <processing>
        <max-depart-delay value="10000"/>
    </processing>

    <report>
        <verbose value="true"/>
        <no-step-log value="true"/>
    </report>

    <traci_server>
        <remote-port value="8819"/>
        <num-clients value="5"/>
    </traci_server>

    <gui_only>
        <gui-settings-file value="D:\Sumo\sumo-marl\scenario\ql1.settings.xml"/>
        <quit-on-end value="true"/>
        <start value="true"/>
    </gui_only>

</configuration>
-->

<netstate xmlns:xsi="http://www.w3.org/2001/XMLSchema-instance" xsi:noNamespaceSchemaLocation="http://sumo.dlr.de/xsd/netstate_file.xsd">
    <timestep time="0.00">
        <edge id="E10">
            <lane id="E10_0">
                <vehicle id="veh1" pos="5.10" speed="0.00"/>
            </lane>
        </edge>
        <edge id="E12">
            <lane id="E12_0">
                <vehicle id="veh2" pos="5.10" speed="0.00"/>
            </lane>
        </edge>
        <edge id="E14">
            <lane id="E14_0">
                <vehicle id="veh4" pos="5.10" speed="0.00"/>
            </lane>
        </edge>
        <edge id="E19">
            <lane id="E19_0">
                <vehicle id="veh0" pos="5.10" speed="0.00"/>
            </lane>
        </edge>
        <edge id="E7">
            <lane id="E7_0">
                <vehicle id="veh3" pos="5.10" speed="0.00"/>
            </lane>
        </edge>
    </timestep>
    <timestep time="1.00">
        <edge id="E10">
            <lane id="E10_0">
                <vehicle id="veh1" pos="6.99" speed="1.89"/>
            </lane>
        </edge>
        <edge id="E12">
            <lane id="E12_0">
                <vehicle id="veh2" pos="7.31" speed="2.21"/>
            </lane>
        </edge>
        <edge id="E14">
            <lane id="E14_0">
                <vehicle id="veh4" pos="7.08" speed="1.98"/>
            </lane>
        </edge>
        <edge id="E19">
            <lane id="E19_0">
                <vehicle id="veh0" pos="6.54" speed="1.44"/>
            </lane>
        </edge>
        <edge id="E7">
            <lane id="E7_0">
                <vehicle id="veh3" pos="7.59" speed="2.49"/>
            </lane>
        </edge>
    </timestep>
    <timestep time="2.00">
        <edge id="E10">
            <lane id="E10_0">
                <vehicle id="veh1" pos="11.22" speed="4.23"/>
            </lane>
        </edge>
        <edge id="E12">
            <lane id="E12_0">
                <vehicle id="veh2" pos="11.81" speed="4.51"/>
            </lane>
        </edge>
        <edge id="E14">
            <lane id="E14_0">
                <vehicle id="veh4" pos="10.75" speed="3.67"/>
            </lane>
        </edge>
        <edge id="E19">
            <lane id="E19_0">
                <vehicle id="veh0" pos="9.66" speed="3.12"/>
            </lane>
        </edge>
        <edge id="E7">
            <lane id="E7_0">
                <vehicle id="veh3" pos="11.95" speed="4.36"/>
            </lane>
        </edge>
    </timestep>
    <timestep time="3.00">
        <edge id="E0">
            <lane id="E0_0">
                <vehicle id="veh0" pos="5.21" speed="5.66"/>
            </lane>
        </edge>
        <edge id="E10">
            <lane id="E10_0">
                <vehicle id="veh1" pos="16.78" speed="5.56"/>
            </lane>
        </edge>
        <edge id="E12">
            <lane id="E12_0">
                <vehicle id="veh2" pos="18.72" speed="6.90"/>
            </lane>
        </edge>
        <edge id="E14">
            <lane id="E14_0">
                <vehicle id="veh4" pos="15.74" speed="5.00"/>
            </lane>
        </edge>
        <edge id="E7">
            <lane id="E7_0">
                <vehicle id="veh3" pos="18.85" speed="6.90"/>
            </lane>
        </edge>
    </timestep>
    <timestep time="4.00">
        <edge id="E0">
            <lane id="E0_0">
                <vehicle id="veh0" pos="12.54" speed="7.32"/>
            </lane>
        </edge>
        <edge id="E10">
            <lane id="E10_0">
                <vehicle id="veh1" pos="23.73" speed="6.95"/>
            </lane>
        </edge>
        <edge id="E12">
            <lane id="E12_0">
                <vehicle id="veh2" pos="27.31" speed="8.59"/>
            </lane>
        </edge>
        <edge id="E14">
            <lane id="E14_0">
                <vehicle id="veh4" pos="23.25" speed="7.51"/>
            </lane>
        </edge>
        <edge id="E7">
            <lane id="E7_0">
                <vehicle id="veh3" pos="27.97" speed="9.12"/>
            </lane>
        </edge>
    </timestep>
    <timestep time="5.00">
        <edge id="E0">
            <lane id="E0_0">
                <vehicle id="veh0" pos="21.75" speed="9.21"/>
            </lane>
        </edge>
        <edge id="E10">
            <lane id="E10_0">
                <vehicle id="veh1" pos="33.17" speed="9.44"/>
            </lane>
        </edge>
        <edge id="E12">
            <lane id="E12_0">
                <vehicle id="veh2" pos="37.61" speed="10.31"/>
            </lane>
        </edge>
        <edge id="E14">
            <lane id="E14_0">
                <vehicle id="veh4" pos="32.83" speed="9.58"/>
            </lane>
        </edge>
        <edge id="E7">
            <lane id="E7_0">
                <vehicle id="veh3" pos="39.53" speed="11.55"/>
            </lane>
        </edge>
    </timestep>
    <timestep time="6.00">
        <edge id="E0">
            <lane id="E0_0">
                <vehicle id="veh0" pos="32.81" speed="11.07"/>
            </lane>
        </edge>
        <edge id="E10">
            <lane id="E10_0">
                <vehicle id="veh1" pos="45.14" speed="11.98"/>
            </lane>
        </edge>
        <edge id="E12">
            <lane id="E12_0">
                <vehicle id="veh2" pos="49.66" speed="12.05"/>
            </lane>
        </edge>
        <edge id="E14">
            <lane id="E14_0">
                <vehicle id="veh4" pos="43.92" speed="11.09"/>
            </lane>
        </edge>
        <edge id="E7">
            <lane id="E7_0">
                <vehicle id="veh3" pos="53.32" speed="13.80"/>
            </lane>
        </edge>
    </timestep>
    <timestep time="7.00">
        <edge id="E0">
            <lane id="E0_0">
                <vehicle id="veh0" pos="45.35" speed="12.54"/>
            </lane>
        </edge>
        <edge id="E10">
            <lane id="E10_0">
                <vehicle id="veh1" pos="57.67" speed="12.53"/>
            </lane>
        </edge>
        <edge id="E12">
            <lane id="E12_0">
                <vehicle id="veh2" pos="63.09" speed="13.43"/>
            </lane>
        </edge>
        <edge id="E14">
            <lane id="E14_0">
                <vehicle id="veh4" pos="56.87" speed="12.95"/>
            </lane>
        </edge>
        <edge id="E7">
            <lane id="E7_0">
                <vehicle id="veh3" pos="67.39" speed="14.06"/>
            </lane>
        </edge>
    </timestep>
    <timestep time="8.00">
        <edge id="E0">
            <lane id="E0_0">
                <vehicle id="veh0" pos="59.96" speed="14.61"/>
            </lane>
        </edge>
        <edge id="E10">
            <lane id="E10_0">
                <vehicle id="veh1" pos="69.70" speed="12.03"/>
            </lane>
        </edge>
        <edge id="E12">
            <lane id="E12_0">
                <vehicle id="veh2" pos="76.37" speed="13.28"/>
            </lane>
        </edge>
        <edge id="E14">
            <lane id="E14_0">
                <vehicle id="veh4" pos="70.33" speed="13.46"/>
            </lane>
        </edge>
        <edge id="E7">
            <lane id="E7_0">
                <vehicle id="veh3" pos="82.38" speed="14.99"/>
            </lane>
        </edge>
    </timestep>
    <timestep time="9.00">
        <edge id="E0">
            <lane id="E0_0">
                <vehicle id="veh0" pos="73.98" speed="14.03"/>
            </lane>
        </edge>
        <edge id="E10">
            <lane id="E10_0">
                <vehicle id="veh1" pos="81.57" speed="11.87"/>
            </lane>
        </edge>
        <edge id="E12">
            <lane id="E12_0">
                <vehicle id="veh2" pos="89.23" speed="12.86"/>
            </lane>
        </edge>
        <edge id="E14">
            <lane id="E14_0">
                <vehicle id="veh4" pos="84.09" speed="13.76"/>
            </lane>
        </edge>
        <edge id="E7">
            <lane id="E7_0">
                <vehicle id="veh3" pos="97.07" speed="14.69"/>
            </lane>
        </edge>
    </timestep>
    <timestep time="10.00">
        <edge id="E0">
            <lane id="E0_0">
                <vehicle id="veh0" pos="88.70" speed="14.72"/>
            </lane>
        </edge>
        <edge id="E10">
            <lane id="E10_0">
                <vehicle id="veh1" pos="94.20" speed="12.63"/>
            </lane>
        </edge>
        <edge id="E12">
            <lane id="E12_0">
                <vehicle id="veh2" pos="102.01" speed="12.78"/>
            </lane>
        </edge>
        <edge id="E14">
            <lane id="E14_0">
                <vehicle id="veh4" pos="97.68" speed="13.59"/>
            </lane>
        </edge>
        <edge id="E7">
            <lane id="E7_0">
                <vehicle id="veh3" pos="112.10" speed="15.03"/>
            </lane>
        </edge>
    </timestep>
    <timestep time="11.00">
        <edge id="E0">
            <lane id="E0_0">
                <vehicle id="veh0" pos="103.33" speed="14.64"/>
            </lane>
        </edge>
        <edge id="E10">
            <lane id="E10_0">
                <vehicle id="veh1" pos="107.09" speed="12.89"/>
            </lane>
        </edge>
        <edge id="E12">
            <lane id="E12_0">
                <vehicle id="veh2" pos="115.76" speed="13.75"/>
            </lane>
        </edge>
        <edge id="E14">
            <lane id="E14_0">
                <vehicle id="veh4" pos="111.26" speed="13.57"/>
            </lane>
        </edge>
        <edge id="E7">
            <lane id="E7_0">
                <vehicle id="veh3" pos="126.02" speed="13.92"/>
            </lane>
        </edge>
    </timestep>
    <timestep time="12.00">
        <edge id="E0">
            <lane id="E0_0">
                <vehicle id="veh0" pos="117.08" speed="13.75"/>
            </lane>
        </edge>
        <edge id="E10">
            <lane id="E10_0">
                <vehicle id="veh1" pos="119.12" speed="12.03"/>
            </lane>
        </edge>
        <edge id="E12">
            <lane id="E12_0">
                <vehicle id="veh2" pos="129.09" speed="13.33"/>
            </lane>
        </edge>
        <edge id="E14">
            <lane id="E14_0">
                <vehicle id="veh4" pos="124.30" speed="13.04"/>
            </lane>
        </edge>
        <edge id="E7">
            <lane id="E7_0">
                <vehicle id="veh3" pos="140.06" speed="14.04"/>
            </lane>
        </edge>
    </timestep>
    <timestep time="13.00">
        <edge id="E0">
            <lane id="E0_0">
                <vehicle id="veh0" pos="131.37" speed="14.29"/>
            </lane>
        </edge>
        <edge id="E10">
            <lane id="E10_0">
                <vehicle id="veh1" pos="131.49" speed="12.37"/>
            </lane>
        </edge>
        <edge id="E12">
            <lane id="E12_0">
                <vehicle id="veh2" pos="142.72" speed="13.63"/>
            </lane>
        </edge>
        <edge id="E14">
            <lane id="E14_0">
                <vehicle id="veh4" pos="137.91" speed="13.61"/>
            </lane>
        </edge>
        <edge id="E7">
            <lane id="E7_0">
                <vehicle id="veh3" pos="154.23" speed="14.17"/>
            </lane>
        </edge>
    </timestep>
    <timestep time="14.00">
        <edge id="E0">
            <lane id="E0_0">
                <vehicle id="veh0" pos="145.43" speed="14.06"/>
            </lane>
        </edge>
        <edge id="E10">
            <lane id="E10_0">
                <vehicle id="veh1" pos="144.00" speed="12.51"/>
            </lane>
        </edge>
        <edge id="E12">
            <lane id="E12_0">
                <vehicle id="veh2" pos="156.40" speed="13.68"/>
            </lane>
        </edge>
        <edge id="E14">
            <lane id="E14_0">
                <vehicle id="veh4" pos="151.98" speed="14.07"/>
            </lane>
        </edge>
        <edge id="E7">
            <lane id="E7_0">
                <vehicle id="veh3" pos="168.49" speed="14.25"/>
            </lane>
        </edge>
    </timestep>
    <timestep time="15.00">
        <edge id="E0">
            <lane id="E0_0">
                <vehicle id="veh0" pos="159.38" speed="13.95"/>
            </lane>
        </edge>
        <edge id="E10">
            <lane id="E10_0">
                <vehicle id="veh1" pos="156.73" speed="12.73"/>
            </lane>
        </edge>
        <edge id="E12">
            <lane id="E12_0">
                <vehicle id="veh2" pos="170.42" speed="14.02"/>
            </lane>
        </edge>
        <edge id="E14">
            <lane id="E14_0">
                <vehicle id="veh4" pos="165.16" speed="13.18"/>
            </lane>
        </edge>
        <edge id="E7">
            <lane id="E7_0">
                <vehicle id="veh3" pos="182.54" speed="14.06"/>
            </lane>
        </edge>
    </timestep>
    <timestep time="16.00">
        <edge id=":H_5">
            <lane id=":H_5_0">
                <vehicle id="veh3" pos="11.93" speed="14.98"/>
            </lane>
        </edge>
        <edge id="E0">
            <lane id="E0_0">
                <vehicle id="veh0" pos="173.92" speed="14.54"/>
            </lane>
        </edge>
        <edge id="E10">
            <lane id="E10_0">
                <vehicle id="veh1" pos="168.88" speed="12.15"/>
            </lane>
        </edge>
        <edge id="E12">
            <lane id="E12_0">
                <vehicle id="veh2" pos="180.82" speed="10.40"/>
            </lane>
        </edge>
        <edge id="E14">
            <lane id="E14_0">
                <vehicle id="veh4" pos="176.98" speed="11.82"/>
            </lane>
        </edge>
    </timestep>
    <timestep time="17.00">
        <edge id=":J_5">
            <lane id=":J_5_0">
                <vehicle id="veh2" pos="1.34" speed="6.12"/>
            </lane>
        </edge>
        <edge id="E0">
            <lane id="E0_0">
                <vehicle id="veh0" pos="183.96" speed="10.04"/>
            </lane>
        </edge>
        <edge id="E10">
            <lane id="E10_0">
                <vehicle id="veh1" pos="180.31" speed="11.43"/>
            </lane>
        </edge>
        <edge id="E14">
            <lane id="E14_0">
                <vehicle id="veh4" pos="185.14" speed="8.16"/>
            </lane>
        </edge>
        <edge id="E8">
            <lane id="E8_0">
                <vehicle id="veh3" pos="12.06" speed="14.54"/>
            </lane>
        </edge>
    </timestep>
    <timestep time="18.00">
        <edge id=":J_6">
            <lane id=":J_6_0">
                <vehicle id="veh2" pos="4.74" speed="7.47"/>
            </lane>
        </edge>
        <edge id="E0">
            <lane id="E0_0">
                <vehicle id="veh0" pos="189.53" speed="5.56"/>
            </lane>
        </edge>
        <edge id="E10">
            <lane id="E10_0">
                <vehicle id="veh1" pos="188.43" speed="8.12"/>
            </lane>
        </edge>
        <edge id="E14">
            <lane id="E14_0">
                <vehicle id="veh4" pos="188.80" speed="3.66"/>
            </lane>
        </edge>
        <edge id="E8">
            <lane id="E8_0">
                <vehicle id="veh3" pos="26.62" speed="14.56"/>
            </lane>
        </edge>
    </timestep>
    <timestep time="19.00">
        <edge id=":C_10">
            <lane id=":C_10_0">
                <vehicle id="veh0" pos="4.71" speed="7.98"/>
            </lane>
        </edge>
        <edge id=":D_0">
            <lane id=":D_0_0">
                <vehicle id="veh1" pos="3.62" speed="4.79"/>
            </lane>
        </edge>
        <edge id="-E13">
            <lane id="-E13_0">
                <vehicle id="veh4" pos="0.62" speed="3.99"/>
            </lane>
        </edge>
        <edge id="-E18">
            <lane id="-E18_0">
                <vehicle id="veh2" pos="1.49" speed="6.88"/>
            </lane>
        </edge>
        <edge id="E8">
            <lane id="E8_0">
                <vehicle id="veh3" pos="41.49" speed="14.87"/>
            </lane>
        </edge>
    </timestep>
    <timestep time="20.00">
        <edge id="-E13">
            <lane id="-E13_0">
                <vehicle id="veh4" pos="6.34" speed="5.72"/>
            </lane>
        </edge>
        <edge id="-E18">
            <lane id="-E18_0">
                <vehicle id="veh2" pos="9.75" speed="8.26"/>
            </lane>
        </edge>
        <edge id="E1">
            <lane id="E1_0">
                <vehicle id="veh0" pos="0.49" speed="10.18"/>
            </lane>
        </edge>
        <edge id="E11">
            <lane id="E11_0">
                <vehicle id="veh1" pos="1.31" speed="5.43"/>
            </lane>
        </edge>
        <edge id="E8">
            <lane id="E8_0">
                <vehicle id="veh3" pos="55.76" speed="14.26"/>
            </lane>
        </edge>
    </timestep>
    <timestep time="21.00">
        <edge id="-E13">
            <lane id="-E13_0">
                <vehicle id="veh4" pos="13.56" speed="7.23"/>
            </lane>
        </edge>
        <edge id="-E18">
            <lane id="-E18_0">
                <vehicle id="veh2" pos="19.34" speed="9.59"/>
            </lane>
        </edge>
        <edge id="E1">
            <lane id="E1_0">
                <vehicle id="veh0" pos="12.29" speed="11.80"/>
            </lane>
        </edge>
        <edge id="E11">
            <lane id="E11_0">
                <vehicle id="veh1" pos="8.86" speed="7.55"/>
            </lane>
        </edge>
        <edge id="E8">
            <lane id="E8_0">
                <vehicle id="veh3" pos="70.31" speed="14.55"/>
            </lane>
        </edge>
    </timestep>
    <timestep time="22.00">
        <edge id="-E13">
            <lane id="-E13_0">
                <vehicle id="veh4" pos="23.38" speed="9.82"/>
            </lane>
        </edge>
        <edge id="-E18">
            <lane id="-E18_0">
                <vehicle id="veh2" pos="30.36" speed="11.03"/>
            </lane>
        </edge>
        <edge id="E1">
            <lane id="E1_0">
                <vehicle id="veh0" pos="26.43" speed="14.14"/>
            </lane>
        </edge>
        <edge id="E11">
            <lane id="E11_0">
                <vehicle id="veh1" pos="18.18" speed="9.32"/>
            </lane>
        </edge>
        <edge id="E8">
            <lane id="E8_0">
                <vehicle id="veh3" pos="85.21" speed="14.91"/>
            </lane>
        </edge>
    </timestep>
    <timestep time="23.00">
        <edge id="-E13">
            <lane id="-E13_0">
                <vehicle id="veh4" pos="35.59" speed="12.21"/>
            </lane>
        </edge>
        <edge id="-E18">
            <lane id="-E18_0">
                <vehicle id="veh2" pos="43.94" speed="13.57"/>
            </lane>
        </edge>
        <edge id="E1">
            <lane id="E1_0">
                <vehicle id="veh0" pos="40.82" speed="14.39"/>
            </lane>
        </edge>
        <edge id="E11">
            <lane id="E11_0">
                <vehicle id="veh1" pos="29.83" speed="11.65"/>
            </lane>
        </edge>
        <edge id="E8">
            <lane id="E8_0">
                <vehicle id="veh3" pos="100.16" speed="14.95"/>
            </lane>
        </edge>
    </timestep>
    <timestep time="24.00">
        <edge id="-E13">
            <lane id="-E13_0">
                <vehicle id="veh4" pos="49.59" speed="14.00"/>
            </lane>
        </edge>
        <edge id="-E18">
            <lane id="-E18_0">
                <vehicle id="veh2" pos="57.80" speed="13.86"/>
            </lane>
        </edge>
        <edge id="E1">
            <lane id="E1_0">
                <vehicle id="veh0" pos="54.77" speed="13.95"/>
            </lane>
        </edge>
        <edge id="E11">
            <lane id="E11_0">
                <vehicle id="veh1" pos="42.83" speed="13.01"/>
            </lane>
        </edge>
        <edge id="E8">
            <lane id="E8_0">
                <vehicle id="veh3" pos="114.33" speed="14.17"/>
            </lane>
        </edge>
    </timestep>
    <timestep time="25.00">
        <edge id="-E13">
            <lane id="-E13_0">
                <vehicle id="veh4" pos="63.72" speed="14.13"/>
            </lane>
        </edge>
        <edge id="-E18">
            <lane id="-E18_0">
                <vehicle id="veh2" pos="70.92" speed="13.12"/>
            </lane>
        </edge>
        <edge id="E1">
            <lane id="E1_0">
                <vehicle id="veh0" pos="69.38" speed="14.62"/>
            </lane>
        </edge>
        <edge id="E11">
            <lane id="E11_0">
                <vehicle id="veh1" pos="55.09" speed="12.25"/>
            </lane>
        </edge>
        <edge id="E8">
            <lane id="E8_0">
                <vehicle id="veh3" pos="129.24" speed="14.91"/>
            </lane>
        </edge>
    </timestep>
    <timestep time="26.00">
        <edge id="-E13">
            <lane id="-E13_0">
                <vehicle id="veh4" pos="77.48" speed="13.75"/>
            </lane>
        </edge>
        <edge id="-E18">
            <lane id="-E18_0">
                <vehicle id="veh2" pos="83.85" speed="12.93"/>
            </lane>
        </edge>
        <edge id="E1">
            <lane id="E1_0">
                <vehicle id="veh0" pos="82.93" speed="13.55"/>
            </lane>
        </edge>
        <edge id="E11">
            <lane id="E11_0">
                <vehicle id="veh1" pos="67.72" speed="12.63"/>
            </lane>
        </edge>
        <edge id="E8">
            <lane id="E8_0">
                <vehicle id="veh3" pos="143.53" speed="14.29"/>
            </lane>
        </edge>
    </timestep>
    <timestep time="27.00">
        <edge id="-E13">
            <lane id="-E13_0">
                <vehicle id="veh4" pos="91.15" speed="13.67"/>
            </lane>
        </edge>
        <edge id="-E18">
            <lane id="-E18_0">
                <vehicle id="veh2" pos="97.34" speed="13.49"/>
            </lane>
        </edge>
        <edge id="E1">
            <lane id="E1_0">
                <vehicle id="veh0" pos="97.25" speed="14.31"/>
            </lane>
        </edge>
        <edge id="E11">
            <lane id="E11_0">
                <vehicle id="veh1" pos="79.82" speed="12.10"/>
            </lane>
        </edge>
        <edge id="E8">
            <lane id="E8_0">
                <vehicle id="veh3" pos="158.41" speed="14.88"/>
            </lane>
        </edge>
    </timestep>
    <timestep time="28.00">
        <edge id="-E13">
            <lane id="-E13_0">
                <vehicle id="veh4" pos="104.90" speed="13.75"/>
            </lane>
        </edge>
        <edge id="-E18">
            <lane id="-E18_0">
                <vehicle id="veh2" pos="110.60" speed="13.26"/>
            </lane>
        </edge>
        <edge id="E1">
            <lane id="E1_0">
                <vehicle id="veh0" pos="111.19" speed="13.95"/>
            </lane>
        </edge>
        <edge id="E11">
            <lane id="E11_0">
                <vehicle id="veh1" pos="91.63" speed="11.81"/>
            </lane>
        </edge>
        <edge id="E8">
            <lane id="E8_0">
                <vehicle id="veh3" pos="172.91" speed="14.50"/>
            </lane>
        </edge>
    </timestep>
    <timestep time="29.00">
        <edge id="-E13">
            <lane id="-E13_0">
                <vehicle id="veh4" pos="118.46" speed="13.56"/>
            </lane>
        </edge>
        <edge id="-E18">
            <lane id="-E18_0">
                <vehicle id="veh2" pos="123.62" speed="13.03"/>
            </lane>
        </edge>
        <edge id="E1">
            <lane id="E1_0">
                <vehicle id="veh0" pos="125.64" speed="14.45"/>
            </lane>
        </edge>
        <edge id="E11">
            <lane id="E11_0">
                <vehicle id="veh1" pos="104.67" speed="13.03"/>
            </lane>
        </edge>
        <edge id="E8">
            <lane id="E8_0">
                <vehicle id="veh3" pos="183.24" speed="10.33"/>
            </lane>
        </edge>
    </timestep>
    <timestep time="30.00">
        <edge id="-E13">
            <lane id="-E13_0">
                <vehicle id="veh4" pos="132.14" speed="13.68"/>
            </lane>
        </edge>
        <edge id="-E18">
            <lane id="-E18_0">
                <vehicle id="veh2" pos="136.58" speed="12.96"/>
            </lane>
        </edge>
        <edge id="E1">
            <lane id="E1_0">
                <vehicle id="veh0" pos="139.54" speed="13.90"/>
            </lane>
        </edge>
        <edge id="E11">
            <lane id="E11_0">
                <vehicle id="veh1" pos="116.76" speed="12.10"/>
            </lane>
        </edge>
        <edge id="E8">
            <lane id="E8_0">
                <vehicle id="veh3" pos="189.07" speed="5.83"/>
            </lane>
        </edge>
    </timestep>
    <timestep time="31.00">
        <edge id="-E13">
            <lane id="-E13_0">
                <vehicle id="veh4" pos="145.64" speed="13.49"/>
            </lane>
        </edge>
        <edge id="-E18">
            <lane id="-E18_0">
                <vehicle id="veh2" pos="150.00" speed="13.42"/>
            </lane>
        </edge>
        <edge id="E1">
            <lane id="E1_0">
                <vehicle id="veh0" pos="153.79" speed="14.26"/>
            </lane>
        </edge>
        <edge id="E11">
            <lane id="E11_0">
                <vehicle id="veh1" pos="129.18" speed="12.42"/>
            </lane>
        </edge>
        <edge id="E9">
            <lane id="E9_0">
                <vehicle id="veh3" pos="0.84" speed="3.96"/>
            </lane>
        </edge>
    </timestep>
    <timestep time="32.00">
        <edge id="-E13">
            <lane id="-E13_0">
                <vehicle id="veh4" pos="159.67" speed="14.04"/>
            </lane>
        </edge>
        <edge id="-E18">
            <lane id="-E18_0">
                <vehicle id="veh2" pos="163.36" speed="13.37"/>
            </lane>
        </edge>
        <edge id="E1">
            <lane id="E1_0">
                <vehicle id="veh0" pos="168.47" speed="14.67"/>
            </lane>
        </edge>
        <edge id="E11">
            <lane id="E11_0">
                <vehicle id="veh1" pos="141.80" speed="12.63"/>
            </lane>
        </edge>
        <edge id="E9">
            <lane id="E9_0">
                <vehicle id="veh3" pos="7.31" speed="6.46"/>
            </lane>
        </edge>
    </timestep>
    <timestep time="33.00">
        <edge id="-E13">
            <lane id="-E13_0">
                <vehicle id="veh4" pos="173.36" speed="13.69"/>
            </lane>
        </edge>
        <edge id="-E18">
            <lane id="-E18_0">
                <vehicle id="veh2" pos="176.35" speed="12.99"/>
            </lane>
        </edge>
        <edge id="E1">
            <lane id="E1_0">
                <vehicle id="veh0" pos="178.64" speed="10.17"/>
            </lane>
        </edge>
        <edge id="E11">
            <lane id="E11_0">
                <vehicle id="veh1" pos="154.51" speed="12.71"/>
            </lane>
        </edge>
        <edge id="E9">
            <lane id="E9_0">
                <vehicle id="veh3" pos="15.92" speed="8.62"/>
            </lane>
        </edge>
    </timestep>
    <timestep time="34.00">
        <edge id="-E13">
            <lane id="-E13_0">
                <vehicle id="veh4" pos="184.25" speed="10.89"/>
            </lane>
        </edge>
        <edge id="-E18">
            <lane id="-E18_0">
                <vehicle id="veh2" pos="184.85" speed="8.49"/>
            </lane>
        </edge>
        <edge id="E1">
            <lane id="E1_0">
                <vehicle id="veh0" pos="184.32" speed="5.67"/>
            </lane>
        </edge>
        <edge id="E11">
            <lane id="E11_0">
                <vehicle id="veh1" pos="166.87" speed="12.36"/>
            </lane>
        </edge>
        <edge id="E9">
            <lane id="E9_0">
                <vehicle id="veh3" pos="25.92" speed="9.99"/>
            </lane>
        </edge>
    </timestep>
    <timestep time="35.00">
        <edge id=":F_9">
            <lane id=":F_9_0">
                <vehicle id="veh0" pos="4.36" speed="5.64"/>
            </lane>
        </edge>
        <edge id=":I_6">
            <lane id=":I_6_0">
                <vehicle id="veh2" pos="5.77" speed="6.53"/>
            </lane>
        </edge>
        <edge id=":J_2">
            <lane id=":J_2_0">
                <vehicle id="veh4" pos="1.16" speed="6.51"/>
            </lane>
        </edge>
        <edge id="E11">