<?xml version="1.0" encoding="UTF-8"?>

<!-- generated on 2023-04-13 16:56:13 by Eclipse SUMO GUI Version 1.16.0
<configuration xmlns:xsi="http://www.w3.org/2001/XMLSchema-instance" xsi:noNamespaceSchemaLocation="http://sumo.dlr.de/xsd/sumoConfiguration.xsd">

    <input>
        <net-file value="/home/mak36/Desktop/SUMO-Rjonin/sumo-marl/scenario/ql1.net.xml"/>
        <additional-files value="/home/mak36/Desktop/SUMO-Rjonin/sumo-marl/scenario/ql2.det.xml"/>
    </input>

    <output>
        <netstate-dump value="/home/mak36/Desktop/SUMO-Rjonin/sumo-marl/scenario/netstate.xml"/>
    </output>

    <time>
        <begin value="0"/>
        <end value="10000"/>
    </time>

    <processing>
        <max-depart-delay value="10000"/>
    </processing>

    <report>
        <verbose value="true"/>
        <no-step-log value="true"/>
    </report>

    <traci_server>
        <remote-port value="8819"/>
        <num-clients value="2"/>
    </traci_server>

    <gui_only>
        <gui-settings-file value="/home/mak36/Desktop/SUMO-Rjonin/sumo-marl/scenario/ql1.settings.xml"/>
        <quit-on-end value="true"/>
        <start value="true"/>
    </gui_only>

</configuration>
-->

<netstate xmlns:xsi="http://www.w3.org/2001/XMLSchema-instance" xsi:noNamespaceSchemaLocation="http://sumo.dlr.de/xsd/netstate_file.xsd">
    <timestep time="0.00">
        <edge id="E10">
            <lane id="E10_0">
                <vehicle id="veh1" pos="5.10" speed="0.00"/>
            </lane>
        </edge>
        <edge id="E19">
            <lane id="E19_0">
                <vehicle id="veh0" pos="5.10" speed="0.00"/>
            </lane>
        </edge>
    </timestep>
    <timestep time="1.00">
        <edge id="E10">
            <lane id="E10_0">
                <vehicle id="veh1" pos="6.99" speed="1.89"/>
            </lane>
        </edge>
        <edge id="E19">
            <lane id="E19_0">
                <vehicle id="veh0" pos="6.54" speed="1.44"/>
            </lane>
        </edge>
    </timestep>
    <timestep time="2.00">
        <edge id="E10">
            <lane id="E10_0">
                <vehicle id="veh1" pos="11.22" speed="4.23"/>
            </lane>
        </edge>
        <edge id="E19">
            <lane id="E19_0">
                <vehicle id="veh0" pos="9.66" speed="3.12"/>
            </lane>
        </edge>
    </timestep>
    <timestep time="3.00">
        <edge id="E0">
            <lane id="E0_0">
                <vehicle id="veh0" pos="5.21" speed="5.66"/>
            </lane>
        </edge>
        <edge id="E10">
            <lane id="E10_0">
                <vehicle id="veh1" pos="16.78" speed="5.56"/>
            </lane>
        </edge>
    </timestep>
    <timestep time="4.00">
        <edge id="E0">
            <lane id="E0_0">
                <vehicle id="veh0" pos="12.54" speed="7.32"/>
            </lane>
        </edge>
        <edge id="E10">
            <lane id="E10_0">
                <vehicle id="veh1" pos="23.73" speed="6.95"/>
            </lane>
        </edge>
    </timestep>
    <timestep time="5.00">
        <edge id="E0">
            <lane id="E0_0">
                <vehicle id="veh0" pos="21.75" speed="9.21"/>
            </lane>
        </edge>
        <edge id="E10">
            <lane id="E10_0">
                <vehicle id="veh1" pos="33.17" speed="9.44"/>
            </lane>
        </edge>
    </timestep>
    <timestep time="6.00">
        <edge id="E0">
            <lane id="E0_0">
                <vehicle id="veh0" pos="32.81" speed="11.07"/>
            </lane>
        </edge>
        <edge id="E10">
            <lane id="E10_0">
                <vehicle id="veh1" pos="45.14" speed="11.98"/>
            </lane>
        </edge>
    </timestep>
    <timestep time="7.00">
        <edge id="E0">
            <lane id="E0_0">
                <vehicle id="veh0" pos="45.35" speed="12.54"/>
            </lane>
        </edge>
        <edge id="E10">
            <lane id="E10_0">
                <vehicle id="veh1" pos="57.67" speed="12.53"/>
            </lane>
        </edge>
    </timestep>
    <timestep time="8.00">
        <edge id="E0">
            <lane id="E0_0">
                <vehicle id="veh0" pos="59.96" speed="14.61"/>
            </lane>
        </edge>
        <edge id="E10">
            <lane id="E10_0">
                <vehicle id="veh1" pos="69.70" speed="12.03"/>
            </lane>
        </edge>
    </timestep>
    <timestep time="9.00">
        <edge id="E0">
            <lane id="E0_0">
                <vehicle id="veh0" pos="73.98" speed="14.03"/>
            </lane>
        </edge>
        <edge id="E10">
            <lane id="E10_0">
                <vehicle id="veh1" pos="81.57" speed="11.87"/>
            </lane>
        </edge>
    </timestep>
    <timestep time="10.00">
        <edge id="E0">
            <lane id="E0_0">
                <vehicle id="veh0" pos="88.70" speed="14.72"/>
            </lane>
        </edge>
        <edge id="E10">
            <lane id="E10_0">
                <vehicle id="veh1" pos="94.20" speed="12.63"/>
            </lane>
        </edge>
    </timestep>
    <timestep time="11.00">
        <edge id="E0">
            <lane id="E0_0">
                <vehicle id="veh0" pos="103.33" speed="14.64"/>
            </lane>
        </edge>
        <edge id="E10">
            <lane id="E10_0">
                <vehicle id="veh1" pos="107.09" speed="12.89"/>
            </lane>
        </edge>
    </timestep>
    <timestep time="12.00">
        <edge id="E0">
            <lane id="E0_0">
                <vehicle id="veh0" pos="117.08" speed="13.75"/>
            </lane>
        </edge>
        <edge id="E10">
            <lane id="E10_0">
                <vehicle id="veh1" pos="119.12" speed="12.03"/>
            </lane>
        </edge>
    </timestep>
    <timestep time="13.00">
        <edge id="E0">
            <lane id="E0_0">
                <vehicle id="veh0" pos="131.37" speed="14.29"/>
            </lane>
        </edge>
        <edge id="E10">
            <lane id="E10_0">
                <vehicle id="veh1" pos="131.49" speed="12.37"/>
            </lane>
        </edge>
    </timestep>
    <timestep time="14.00">
        <edge id="E0">
            <lane id="E0_0">
                <vehicle id="veh0" pos="145.43" speed="14.06"/>
            </lane>
        </edge>
        <edge id="E10">
            <lane id="E10_0">
                <vehicle id="veh1" pos="144.00" speed="12.51"/>
            </lane>
        </edge>
    </timestep>
    <timestep time="15.00">
        <edge id="E0">
            <lane id="E0_0">
                <vehicle id="veh0" pos="159.38" speed="13.95"/>
            </lane>
        </edge>
        <edge id="E10">
            <lane id="E10_0">
                <vehicle id="veh1" pos="156.73" speed="12.73"/>
            </lane>
        </edge>
    </timestep>
    <timestep time="16.00">
        <edge id="E0">
            <lane id="E0_0">
                <vehicle id="veh0" pos="173.92" speed="14.54"/>
            </lane>
        </edge>
        <edge id="E10">
            <lane id="E10_0">
                <vehicle id="veh1" pos="168.88" speed="12.15"/>
            </lane>
        </edge>
    </timestep>
    <timestep time="17.00">
        <edge id="E0">
            <lane id="E0_0">
                <vehicle id="veh0" pos="183.96" speed="10.04"/>
            </lane>
        </edge>
        <edge id="E10">
            <lane id="E10_0">
                <vehicle id="veh1" pos="180.31" speed="11.43"/>
            </lane>
        </edge>
    </timestep>
    <timestep time="18.00">
        <edge id="E0">
            <lane id="E0_0">
                <vehicle id="veh0" pos="189.53" speed="5.56"/>
            </lane>
        </edge>
        <edge id="E10">
            <lane id="E10_0">
                <vehicle id="veh1" pos="188.43" speed="8.12"/>
            </lane>
        </edge>
    </timestep>
    <timestep time="19.00">
        <edge id=":C_9">
            <lane id=":C_9_0">
                <vehicle id="veh0" pos="3.45" speed="6.72"/>
            </lane>
        </edge>
        <edge id=":D_0">
            <lane id=":D_0_0">
                <vehicle id="veh1" pos="3.62" speed="4.79"/>
            </lane>
        </edge>
    </timestep>
    <timestep time="20.00">
        <edge id="E10">
            <lane id="E10_0">
                <vehicle id="veh0" pos="0.68" speed="6.26"/>
            </lane>
        </edge>
        <edge id="E11">
            <lane id="E11_0">
                <vehicle id="veh1" pos="1.31" speed="5.43"/>
            </lane>
        </edge>
    </timestep>
    <timestep time="21.00">
        <edge id="E10">
            <lane id="E10_0">
                <vehicle id="veh0" pos="9.38" speed="8.70"/>
            </lane>
        </edge>
        <edge id="E11">
            <lane id="E11_0">
                <vehicle id="veh1" pos="8.86" speed="7.55"/>
            </lane>
        </edge>
    </timestep>
    <timestep time="22.00">
        <edge id="E10">
            <lane id="E10_0">
                <vehicle id="veh0" pos="19.77" speed="10.39"/>
            </lane>
        </edge>
        <edge id="E11">
            <lane id="E11_0">
                <vehicle id="veh1" pos="18.18" speed="9.32"/>
            </lane>
        </edge>
    </timestep>
    <timestep time="23.00">
        <edge id="E10">
            <lane id="E10_0">
                <vehicle id="veh0" pos="32.61" speed="12.84"/>
            </lane>
        </edge>
        <edge id="E11">
            <lane id="E11_0">
                <vehicle id="veh1" pos="29.83" speed="11.65"/>
            </lane>
        </edge>
    </timestep>
    <timestep time="24.00">
        <edge id="E10">
            <lane id="E10_0">
                <vehicle id="veh0" pos="46.95" speed="14.34"/>
            </lane>
        </edge>
        <edge id="E11">
            <lane id="E11_0">
                <vehicle id="veh1" pos="42.83" speed="13.01"/>
            </lane>
        </edge>
    </timestep>
    <timestep time="25.00">
        <edge id="E10">
            <lane id="E10_0">
                <vehicle id="veh0" pos="61.29" speed="14.33"/>
            </lane>
        </edge>
        <edge id="E11">
            <lane id="E11_0">
                <vehicle id="veh1" pos="55.09" speed="12.25"/>
            </lane>
        </edge>
    </timestep>
    <timestep time="26.00">
        <edge id="E10">
            <lane id="E10_0">
                <vehicle id="veh0" pos="74.99" speed="13.70"/>
            </lane>
        </edge>
        <edge id="E11">
            <lane id="E11_0">
                <vehicle id="veh1" pos="67.72" speed="12.63"/>
            </lane>
        </edge>
    </timestep>
    <timestep time="27.00">
        <edge id="E10">
            <lane id="E10_0">
                <vehicle id="veh0" pos="88.84" speed="13.85"/>
            </lane>
        </edge>
        <edge id="E11">
            <lane id="E11_0">
                <vehicle id="veh1" pos="79.82" speed="12.10"/>
            </lane>
        </edge>
    </timestep>
    <timestep time="28.00">
        <edge id="E10">
            <lane id="E10_0">
                <vehicle id="veh0" pos="103.45" speed="14.60"/>
            </lane>
        </edge>
        <edge id="E11">
            <lane id="E11_0">
                <vehicle id="veh1" pos="91.63" speed="11.81"/>
            </lane>
        </edge>
    </timestep>
    <timestep time="29.00">
        <edge id="E10">
            <lane id="E10_0">
                <vehicle id="veh0" pos="117.97" speed="14.52"/>
            </lane>
        </edge>
        <edge id="E11">
            <lane id="E11_0">
                <vehicle id="veh1" pos="104.67" speed="13.03"/>
            </lane>
        </edge>
    </timestep>
    <timestep time="30.00">
        <edge id="E10">
            <lane id="E10_0">
                <vehicle id="veh0" pos="132.53" speed="14.57"/>
            </lane>
        </edge>
        <edge id="E11">
            <lane id="E11_0">
                <vehicle id="veh1" pos="116.76" speed="12.10"/>
            </lane>
        </edge>
    </timestep>
    <timestep time="31.00">
        <edge id="E10">
            <lane id="E10_0">
                <vehicle id="veh0" pos="146.21" speed="13.68"/>
            </lane>
        </edge>
        <edge id="E11">
            <lane id="E11_0">
                <vehicle id="veh1" pos="129.18" speed="12.42"/>
            </lane>
        </edge>
    </timestep>
    <timestep time="32.00">
        <edge id="E10">
            <lane id="E10_0">
                <vehicle id="veh0" pos="160.35" speed="14.14"/>
            </lane>
        </edge>
        <edge id="E11">
            <lane id="E11_0">
                <vehicle id="veh1" pos="141.80" speed="12.63"/>
            </lane>
        </edge>
    </timestep>
    <timestep time="33.00">
        <edge id="E10">
            <lane id="E10_0">
                <vehicle id="veh0" pos="173.88" speed="13.53"/>
            </lane>
        </edge>
        <edge id="E11">
            <lane id="E11_0">
                <vehicle id="veh1" pos="154.51" speed="12.71"/>
            </lane>
        </edge>
    </timestep>
    <timestep time="34.00">
        <edge id="E10">
            <lane id="E10_0">
                <vehicle id="veh0" pos="183.64" speed="9.76"/>
            </lane>
        </edge>
        <edge id="E11">
            <lane id="E11_0">
                <vehicle id="veh1" pos="166.87" speed="12.36"/>
            </lane>
        </edge>
    </timestep>
    <timestep time="35.00">
        <edge id="E10">
            <lane id="E10_0">
                <vehicle id="veh0" pos="189.35" speed="5.71"/>
            </lane>
        </edge>
        <edge id="E11">
            <lane id="E11_0">
                <vehicle id="veh1" pos="179.14" speed="12.27"/>
            </lane>
        </edge>
    </timestep>
    <timestep time="36.00">
        <edge id=":D_0">
            <lane id=":D_0_0">
                <vehicle id="veh0" pos="5.41" speed="5.66"/>
            </lane>
        </edge>
        <edge id=":G_4">
            <lane id=":G_4_0">
                <vehicle id="veh1" pos="2.53" speed="12.99"/>
            </lane>
        </edge>
    </timestep>
    <timestep time="37.00">
        <edge id=":G_4">
            <lane id=":G_4_0">
                <vehicle id="veh1" pos="14.28" speed="11.75"/>
            </lane>
        </edge>
        <edge id="E11">
            <lane id="E11_0">
                <vehicle id="veh0" pos="3.98" speed="6.31"/>
            </lane>
        </edge>
    </timestep>
    <timestep time="38.00">
        <edge id="E11">
            <lane id="E11_0">
                <vehicle id="veh0" pos="12.76" speed="8.78"/>
            </lane>
        </edge>
        <edge id="E12">
            <lane id="E12_0">
                <vehicle id="veh1" pos="12.20" speed="12.31"/>
            </lane>
        </edge>
    </timestep>
    <timestep time="39.00">
        <edge id="E11">
            <lane id="E11_0">
                <vehicle id="veh0" pos="23.51" speed="10.75"/>
            </lane>
        </edge>
        <edge id="E12">
            <lane id="E12_0">
                <vehicle id="veh1" pos="24.83" speed="12.64"/>
            </lane>
        </edge>
    </timestep>
    <timestep time="40.00">
        <edge id="E11">
            <lane id="E11_0">
                <vehicle id="veh0" pos="36.02" speed="12.52"/>
            </lane>
        </edge>
        <edge id="E12">
            <lane id="E12_0">
                <vehicle id="veh1" pos="37.57" speed="12.73"/>
            </lane>
        </edge>
    </timestep>
    <timestep time="41.00">
        <edge id="E11">
            <lane id="E11_0">
                <vehicle id="veh0" pos="50.05" speed="14.03"/>
            </lane>
        </edge>
        <edge id="E12">
            <lane id="E12_0">
                <vehicle id="veh1" pos="50.40" speed="12.83"/>
            </lane>
        </edge>
    </timestep>
    <timestep time="42.00">
        <edge id="E11">
            <lane id="E11_0">
                <vehicle id="veh0" pos="64.05" speed="14.00"/>
            </lane>
        </edge>
        <edge id="E12">
            <lane id="E12_0">
                <vehicle id="veh1" pos="62.52" speed="12.12"/>
            </lane>
        </edge>
    </timestep>
    <timestep time="43.00">
        <edge id="E11">
            <lane id="E11_0">
                <vehicle id="veh0" pos="77.83" speed="13.78"/>
            </lane>
        </edge>
        <edge id="E12">
            <lane id="E12_0">
                <vehicle id="veh1" pos="74.67" speed="12.15"/>
            </lane>
        </edge>
    </timestep>
    <timestep time="44.00">
        <edge id="E11">
            <lane id="E11_0">
                <vehicle id="veh0" pos="92.31" speed="14.49"/>
            </lane>
        </edge>
        <edge id="E12">
            <lane id="E12_0">
                <vehicle id="veh1" pos="86.84" speed="12.17"/>
            </lane>
        </edge>
    </timestep>
    <timestep time="45.00">
        <edge id="E11">
            <lane id="E11_0">
                <vehicle id="veh0" pos="107.03" speed="14.71"/>
            </lane>
        </edge>
        <edge id="E12">
            <lane id="E12_0">
                <vehicle id="veh1" pos="99.27" speed="12.43"/>
            </lane>
        </edge>
    </timestep>
    <timestep time="46.00">
        <edge id="E11">
            <lane id="E11_0">
                <vehicle id="veh0" pos="121.15" speed="14.13"/>
            </lane>
        </edge>
        <edge id="E12">
            <lane id="E12_0">
                <vehicle id="veh1" pos="111.55" speed="12.28"/>
            </lane>
        </edge>
    </timestep>
    <timestep time="47.00">
        <edge id="E11">
            <lane id="E11_0">
                <vehicle id="veh0" pos="135.32" speed="14.16"/>
            </lane>
        </edge>
        <edge id="E12">
            <lane id="E12_0">
                <vehicle id="veh1" pos="123.40" speed="11.85"/>
            </lane>
        </edge>
    </timestep>
    <timestep time="48.00">
        <edge id="E11">
            <lane id="E11_0">
                <vehicle id="veh0" pos="149.25" speed="13.94"/>
            </lane>
        </edge>
        <edge id="E12">
            <lane id="E12_0">
                <vehicle id="veh1" pos="135.18" speed="11.78"/>
            </lane>
        </edge>
    </timestep>
    <timestep time="49.00">
        <edge id="E11">
            <lane id="E11_0">
                <vehicle id="veh0" pos="162.92" speed="13.67"/>
            </lane>
        </edge>
        <edge id="E12">
            <lane id="E12_0">
                <vehicle id="veh1" pos="147.93" speed="12.75"/>
            </lane>
        </edge>
    </timestep>
    <timestep time="50.00">
        <edge id="E11">
            <lane id="E11_0">
                <vehicle id="veh0" pos="176.49" speed="13.57"/>
            </lane>
        </edge>
        <edge id="E12">
            <lane id="E12_0">
                <vehicle id="veh1" pos="160.26" speed="12.33"/>
            </lane>
        </edge>
    </timestep>
    <timestep time="51.00">
        <edge id=":G_4">
            <lane id=":G_4_0">
                <vehicle id="veh0" pos="0.41" speed="13.52"/>
            </lane>
        </edge>
        <edge id="E12">
            <lane id="E12_0">
                <vehicle id="veh1" pos="172.89" speed="12.63"/>
            </lane>
        </edge>
    </timestep>
    <timestep time="52.00">
        <edge id="E12">
            <lane id="E12_0">
                <vehicle id="veh0" pos="0.16" speed="14.15"/>
                <vehicle id="veh1" pos="182.60" speed="9.71"/>
            </lane>
        </edge>
    </timestep>
    <timestep time="53.00">
        <edge id=":J_5">
            <lane id=":J_5_0">
                <vehicle id="veh1" pos="2.72" speed="5.72"/>
            </lane>
        </edge>
        <edge id="E12">
            <lane id="E12_0">
                <vehicle id="veh0" pos="14.40" speed="14.24"/>
            </lane>
        </edge>
    </timestep>
    <timestep time="54.00">
        <edge id=":J_6">
            <lane id=":J_6_0">
                <vehicle id="veh1" pos="5.54" speed="6.89"/>
            </lane>
        </edge>
        <edge id="E12">
            <lane id="E12_0">
                <vehicle id="veh0" pos="28.62" speed="14.22"/>
            </lane>
        </edge>
    </timestep>
    <timestep time="55.00">
        <edge id="-E18">
            <lane id="-E18_0">
                <vehicle id="veh1" pos="1.72" speed="6.31"/>
            </lane>
        </edge>
        <edge id="E12">
            <lane id="E12_0">
                <vehicle id="veh0" pos="42.25" speed="13.63"/>
            </lane>
        </edge>
    </timestep>
    <timestep time="56.00">
        <edge id="-E18">
            <lane id="-E18_0">
                <vehicle id="veh1" pos="9.40" speed="7.68"/>
            </lane>
        </edge>
        <edge id="E12">
            <lane id="E12_0">
                <vehicle id="veh0" pos="56.06" speed="13.81"/>
            </lane>
        </edge>
    </timestep>
    <timestep time="57.00">
        <edge id="-E18">
            <lane id="-E18_0">
                <vehicle id="veh1" pos="18.41" speed="9.01"/>
            </lane>
        </edge>
        <edge id="E12">
            <lane id="E12_0">
                <vehicle id="veh0" pos="69.79" speed="13.73"/>
            </lane>
        </edge>
    </timestep>
    <timestep time="58.00">
        <edge id="-E18">
            <lane id="-E18_0">
                <vehicle id="veh1" pos="28.86" speed="10.45"/>
            </lane>
        </edge>
        <edge id="E12">
            <lane id="E12_0">
                <vehicle id="veh0" pos="83.62" speed="13.83"/>
            </lane>
        </edge>
    </timestep>
    <timestep time="59.00">
        <edge id="-E18">
            <lane id="-E18_0">
                <vehicle id="veh1" pos="41.84" speed="12.98"/>
            </lane>
        </edge>
        <edge id="E12">
            <lane id="E12_0">
                <vehicle id="veh0" pos="97.66" speed="14.04"/>
            </lane>
        </edge>
    </timestep>
    <timestep time="60.00">
        <edge id="-E18">
            <lane id="-E18_0">
                <vehicle id="veh1" pos="54.70" speed="12.86"/>
            </lane>
        </edge>
        <edge id="E12">
            <lane id="E12_0">
                <vehicle id="veh0" pos="112.21" speed="14.55"/>
            </lane>
        </edge>
    </timestep>
    <timestep time="61.00">
        <edge id="-E18">
            <lane id="-E18_0">
                <vehicle id="veh1" pos="66.82" speed="12.12"/>
            </lane>
        </edge>
        <edge id="E12">
            <lane id="E12_0">
                <vehicle id="veh0" pos="126.67" speed="14.46"/>
            </lane>
        </edge>
    </timestep>
    <timestep time="62.00">
        <edge id="-E18">
            <lane id="-E18_0">
                <vehicle id="veh1" pos="78.75" speed="11.93"/>
            </lane>
        </edge>
        <edge id="E12">
            <lane id="E12_0">
                <vehicle id="veh0" pos="140.18" speed="13.51"/>
            </lane>
        </edge>
    </timestep>
    <timestep time="63.00">
        <edge id="-E18">
            <lane id="-E18_0">
                <vehicle id="veh1" pos="91.24" speed="12.49"/>
            </lane>
        </edge>
        <edge id="E12">
            <lane id="E12_0">
                <vehicle id="veh0" pos="154.51" speed="14.33"/>
            </lane>
        </edge>
    </timestep>
    <timestep time="64.00">
        <edge id="-E18">
            <lane id="-E18_0">
                <vehicle id="veh1" pos="103.49" speed="12.25"/>
            </lane>
        </edge>
        <edge id="E12">
            <lane id="E12_0">
                <vehicle id="veh0" pos="168.36" speed="13.85"/>
            </lane>
        </edge>
    </timestep>
    <timestep time="65.00">
        <edge id="-E18">
            <lane id="-E18_0">
                <vehicle id="veh1" pos="115.52" speed="12.03"/>
            </lane>
        </edge>
        <edge id="E12">
            <lane id="E12_0">
                <vehicle id="veh0" pos="179.78" speed="11.42"/>
            </lane>
        </edge>
    </timestep>
    <timestep time="66.00">
        <edge id=":J_5">
            <lane id=":J_5_0">
                <vehicle id="veh0" pos="1.09" speed="6.92"/>
            </lane>
        </edge>
        <edge id="-E18">
            <lane id="-E18_0">
                <vehicle id="veh1" pos="127.48" speed="11.96"/>
            </lane>
        </edge>
    </timestep>
    <timestep time="67.00">
        <edge id=":J_6">
            <lane id=":J_6_0">
                <vehicle id="veh0" pos="4.40" speed="7.37"/>
            </lane>
        </edge>
        <edge id="-E18">
            <lane id="-E18_0">
                <vehicle id="veh1" pos="139.89" speed="12.41"/>
            </lane>
        </edge>
    </timestep>
    <timestep time="68.00">
        <edge id="-E18">
            <lane id="-E18_0">
                <vehicle id="veh0" pos="2.19" speed="7.92"/>
                <vehicle id="veh1" pos="152.26" speed="12.36"/>
            </lane>
        </edge>
    </timestep>
    <timestep time="69.00">
        <edge id="-E18">
            <lane id="-E18_0">
                <vehicle id="veh0" pos="11.50" speed="9.31"/>
                <vehicle id="veh1" pos="164.91" speed="12.66"/>
            </lane>
        </edge>
    </timestep>
    <timestep time="70.00">
        <edge id="-E18">
            <lane id="-E18_0">
                <vehicle id="veh0" pos="23.16" speed="11.66"/>
                <vehicle id="veh1" pos="177.45" speed="12.54"/>
            </lane>
        </edge>
    </timestep>
    <timestep time="71.00">
        <edge id="-E18">
            <lane id="-E18_0">
                <vehicle id="veh0" pos="36.38" speed="13.22"/>
                <vehicle id="veh1" pos="185.50" speed="8.04"/>
            </lane>
        </edge>
    </timestep>
    <timestep time="72.00">
        <edge id=":I_6">
            <lane id=":I_6_0">
                <vehicle id="veh1" pos="5.20" speed="5.30"/>
            </lane>
        </edge>
        <edge id="-E18">
            <lane id="-E18_0">
                <vehicle id="veh0" pos="50.83" speed="14.45"/>
            </lane>
        </edge>
    </timestep>
    <timestep time="73.00">
        <edge id="-E18">
            <lane id="-E18_0">
                <vehicle id="veh0" pos="65.50" speed="14.67"/>
            </lane>
        </edge>
        <edge id="E3">
            <lane id="E3_0">
                <vehicle id="veh1" pos="1.43" speed="5.26"/>
            </lane>
        </edge>
    </timestep>
    <timestep time="74.00">
        <edge id="-E18">
            <lane id="-E18_0">
                <vehicle id="veh0" pos="79.71" speed="14.21"/>
            </lane>
        </edge>
        <edge id="E3">
            <lane id="E3_0">
                <vehicle id="veh1" pos="9.03" speed="7.60"/>
            </lane>
        </edge>
    </timestep>
    <timestep time="75.00">
        <edge id="-E18">
            <lane id="-E18_0">
                <vehicle id="veh0" pos="94.37" speed="14.66"/>
            </lane>
        </edge>
        <edge id="E3">
            <lane id="E3_0">
                <vehicle id="veh1" pos="18.07" speed="9.04"/>
            </lane>
        </edge>
    </timestep>
    <timestep time="76.00">
        <edge id="-E18">
            <lane id="-E18_0">
                <vehicle id="veh0" pos="109.05" speed="14.68"/>
            </lane>
        </edge>
        <edge id="E3">
            <lane id="E3_0">
                <vehicle id="veh1" pos="29.57" speed="11.50"/>
            </lane>
        </edge>
    </timestep>
    <timestep time="77.00">
        <edge id="-E18">
            <lane id="-E18_0">
                <vehicle id="veh0" pos="122.92" speed="13.87"/>
            </lane>
        </edge>
        <edge id="E3">
            <lane id="E3_0">
                <vehicle id="veh1" pos="41.86" speed="12.29"/>
            </lane>
        </edge>
    </timestep>
    <timestep time="78.00">
        <edge id="-E18">
            <lane id="-E18_0">
                <vehicle id="veh0" pos="136.61" speed="13.69"/>
            </lane>
        </edge>
        <edge id="E3">
            <lane id="E3_0">
                <vehicle id="veh1" pos="54.60" speed="12.74"/>
            </lane>
        </edge>
    </timestep>
    <timestep time="79.00">
        <edge id="-E18">
            <lane id="-E18_0">
                <vehicle id="veh0" pos="150.67" speed="14.06"/>
            </lane>
        </edge>
        <edge id="E3">
            <lane id="E3_0">
                <vehicle id="veh1" pos="67.13" speed="12.53"/>
            </lane>
        </edge>
    </timestep>
    <timestep time="80.00">
        <edge id="-E18">
            <lane id="-E18_0">
                <vehicle id="veh0" pos="164.38" speed="13.71"/>
            </lane>
        </edge>
        <edge id="E3">
            <lane id="E3_0">
                <vehicle id="veh1" pos="79.00" speed="11.87"/>
            </lane>
        </edge>
    </timestep>
    <timestep time="81.00">
        <edge id="-E18">
            <lane id="-E18_0">
                <vehicle id="veh0" pos="176.98" speed="12.60"/>
            </lane>
        </edge>
        <edge id="E3">
            <lane id="E3_0">
                <vehicle id="veh1" pos="91.20" speed="12.20"/>
            </lane>
        </edge>
    </timestep>
    <timestep time="82.00">
        <edge id="-E18">
            <lane id="-E18_0">
                <vehicle id="veh0" pos="185.30" speed="8.31"/>
            </lane>
        </edge>
        <edge id="E3">
            <lane id="E3_0">
                <vehicle id="veh1" pos="103.11" speed="11.91"/>
            </lane>
        </edge>
    </timestep>
    <timestep time="83.00">
        <edge id=":I_6">